# vtk DataFile Version 2.0
2D Surface
ASCII
DATASET UNSTRUCTURED_GRID
POINTS 253 float
6.88133 -30.4994 0. 
6.99986 -30.5286 0. 
7.49985 -30.5985 0. 
7.99984 -30.6885 0. 
8.49983 -30.6995 0. 
8.99982 -30.715 0. 
9.49981 -30.6528 0. 
9.9998 -30.72 0. 
10.4998 -30.6669 0. 
10.9998 -30.594 0. 
11.4998 -30.6384 0. 
11.9998 -30.6366 0. 
12.4998 -30.5226 0. 
12.6197 -30.4994 0. 
5.37855 -29.9994 0. 
5.49989 -30.1207 0. 
5.99988 -30.3802 0. 
6.49987 -30.4053 0. 
12.9997 -30.4259 0. 
13.4997 -30.3074 0. 
13.9997 -30.3313 0. 
14.4997 -30.017 0. 
14.5173 -29.9994 0. 
5.05062 -29.4994 0. 
14.9031 -29.4994 0. 
4.97374 -28.9994 0. 
4.9999 -29.1695 0. 
14.9997 -29.0142 0. 
15.0026 -28.9994 0. 
4.96192 -28.4994 0. 
15.0244 -28.4994 0. 
4.96004 -27.9994 0. 
14.9997 -28.0709 0. 
14.9956 -27.9994 0. 
4.96221 -27.4995 0. 
14.9997 -27.8483 0. 
15.0092 -27.4995 0. 
4.9554 -26.9995 0. 
15.0237 -26.9995 0. 
4.98501 -26.4995 0. 
15.0357 -26.4995 0. 
4.98688 -25.9995 0. 
14.9997 -26.1366 0. 
14.9861 -25.9995 0. 
4.97567 -25.4995 0. 
14.9832 -25.4995 0. 
4.954 -24.9995 0. 
14.9875 -24.9995 0. 
4.9999 -24.5227 0. 
5.00213 -24.4995 0. 
14.9851 -24.4995 0. 
5.00038 -23.9995 0. 
14.9934 -23.9995 0. 
4.98523 -23.4995 0. 
4.9999 -23.9837 0. 
14.9997 -23.8304 0. 
15.012 -23.4995 0. 
4.96021 -22.9995 0. 
14.9997 -23.3315 0. 
14.9754 -22.9995 0. 
4.94241 -22.4995 0. 
14.9614 -22.4995 0. 
4.9999 -22.1459 0. 
5.0237 -21.9996 0. 
14.9681 -21.9996 0. 
5.0128 -21.4996 0. 
14.9658 -21.4996 0. 
5.00201 -20.9996 0. 
14.9713 -20.9996 0. 
5.00764 -20.4996 0. 
14.9933 -20.4996 0. 
4.98909 -19.9996 0. 
4.9999 -20.2911 0. 
14.9997 -20.3882 0. 
15.0221 -19.9996 0. 
4.96774 -19.4996 0. 
14.9997 -19.8121 0. 
14.9623 -19.4996 0. 
4.9999 -19.3077 0. 
5.0515 -18.9996 0. 
14.9803 -18.9996 0. 
5.04616 -18.4996 0. 
14.9997 -18.6019 0. 
15.0047 -18.4996 0. 
5.02456 -17.9996 0. 
15.008 -17.9996 0. 
5.00342 -17.4996 0. 
14.9997 -17.8881 0. 
14.9709 -17.4996 0. 
4.98247 -16.9997 0. 
4.9999 -17.4157 0. 
14.986 -16.9997 0. 
4.96886 -16.4997 0. 
14.9924 -16.4997 0. 
4.9999 -16.268 0. 
5.03586 -15.9997 0. 
14.9935 -15.9997 0. 
5.01888 -15.4997 0. 
14.9456 -15.4997 0. 
4.99065 -14.9997 0. 
4.9999 -15.1635 0. 
14.9535 -14.9997 0. 
4.9999 -14.8858 0. 
5.03126 -14.4997 0. 
14.962 -14.4997 0. 
5.02527 -13.9997 0. 
14.97 -13.9997 0. 
5.02139 -13.4997 0. 
14.9906 -13.4997 0. 
5.03729 -12.9997 0. 
14.9183 -12.9997 0. 
5.02666 -12.4998 0. 
14.9242 -12.4998 0. 
5.06155 -11.9998 0. 
14.9296 -11.9998 0. 
5.05122 -11.4998 0. 
14.9278 -11.4998 0. 
5.01695 -10.9998 0. 
14.9312 -10.9998 0. 
4.99611 -10.4998 0. 
4.9999 -10.5908 0. 
14.959 -10.4998 0. 
4.9999 -10.3766 0. 
5.0115 -9.9998 0. 
14.9997 -10.0988 0. 
15.0097 -9.9998 0. 
5.00799 -9.49981 0. 
15.0374 -9.49981 0. 
4.96583 -8.99982 0. 
4.9999 -9.40388 0. 
15.0506 -8.99982 0. 
4.91048 -8.49983 0. 
15.0118 -8.49983 0. 
4.9999 -8.10235 0. 
5.02296 -7.99984 0. 
15.0563 -7.99984 0. 
4.98716 -7.49985 0. 
4.9999 -7.67774 0. 
15.0992 -7.49985 0. 
4.94538 -6.99986 0. 
15.0525 -6.99986 0. 
4.97632 -6.49987 0. 
15.0805 -6.49987 0. 
4.96926 -5.99988 0. 
15.103 -5.99988 0. 
4.96427 -5.49989 0. 
15.1185 -5.49989 0. 
4.96135 -4.9999 0. 
15.0457 -4.9999 0. 
4.98212 -4.49991 0. 
15.0523 -4.49991 0. 
4.97428 -3.99992 0. 
15.0553 -3.99992 0. 
4.963 -3.49993 0. 
15.0655 -3.49993 0. 
4.98858 -2.99994 0. 
15.0942 -2.99994 0. 
4.97998 -2.49995 0. 
15.1413 -2.49995 0. 
4.96769 -1.99996 0. 
15.1575 -1.99996 0. 
4.96239 -1.49997 0. 
15.154 -1.49997 0. 
4.89432 -0.99998 0. 
15.0984 -0.99998 0. 
4.85848 -0.49999 0. 
15.1128 -0.49999 0. 
4.84459 0 0. 
15.1422 0 0. 
4.89644 0.49999 0. 
15.1074 0.49999 0. 
4.89478 0.99998 0. 
15.1009 0.99998 0. 
4.8799 1.49997 0. 
15.1151 1.49997 0. 
4.88205 1.99996 0. 
15.1284 1.99996 0. 
4.93043 2.49995 0. 
15.105 2.49995 0. 
4.91929 2.99994 0. 
15.1241 2.99994 0. 
4.89729 3.49993 0. 
15.1415 3.49993 0. 
4.88222 3.99992 0. 
15.1511 3.99992 0. 
4.96514 4.49991 0. 
15.0869 4.49991 0. 
4.95585 4.9999 0. 
15.0951 4.9999 0. 
4.9617 5.49989 0. 
15.1084 5.49989 0. 
4.96204 5.99988 0. 
15.1147 5.99988 0. 
4.99217 6.49987 0. 
15.0704 6.49987 0. 
4.99355 6.99986 0. 
15.0806 6.99986 0. 
4.9999 7.10842 0. 
5.0228 7.49985 0. 
15.0987 7.49985 0. 
5.01745 7.99984 0. 
15.0391 7.99984 0. 
5.00606 8.49983 0. 
15.0508 8.49983 0. 
5.02722 8.99982 0. 
15.0656 8.99982 0. 
5.01611 9.49981 0. 
15.1077 9.49981 0. 
4.9997 9.9998 0. 
4.9999 9.9937 0. 
15.1997 9.9998 0. 
4.9999 10.3331 0. 
5 10.4998 0. 
15 10.4998 0. 
5 10.9998 0. 
15 10.9998 0. 
5 11.4998 0. 
15 11.4998 0. 
5 11.9998 0. 
15 11.9998 0. 
5 12.4998 0. 
15 12.4998 0. 
5 12.9997 0. 
15 12.9997 0. 
5 13.4997 0. 
15 13.4997 0. 
5 13.9997 0. 
15 13.9997 0. 
5 14.4997 0. 
15 14.4997 0. 
5 14.9997 0. 
15.2497 14.9997 0. 
0 15 0. 
0.49999 15 0. 
0.99998 15 0. 
1.49997 15 0. 
1.99996 15 0. 
2.49995 15 0. 
2.99994 15 0. 
3.49993 15 0. 
3.99992 15 0. 
4.49991 15 0. 
4.9999 14.9998 0. 
15.4997 15 0. 
15.9997 15 0. 
16.4997 15 0. 
16.9997 15 0. 
17.4996 15 0. 
17.9996 15 0. 
18.4996 15 0. 
18.9996 15 0. 
19.4996 15 0. 
19.9996 15 0. 
CELLS 252 756
2 0 1 
2 1 2 
2 2 3 
2 3 4 
2 4 5 
2 5 6 
2 6 7 
2 7 8 
2 8 9 
2 9 10 
2 10 11 
2 11 12 
2 12 13 
2 14 15 
2 15 16 
2 16 17 
2 17 0 
2 13 18 
2 18 19 
2 19 20 
2 20 21 
2 21 22 
2 23 14 
2 22 24 
2 25 26 
2 26 23 
2 24 27 
2 27 28 
2 29 25 
2 28 30 
2 31 29 
2 32 33 
2 30 32 
2 34 31 
2 33 35 
2 35 36 
2 37 34 
2 36 38 
2 39 37 
2 38 40 
2 41 39 
2 42 43 
2 40 42 
2 44 41 
2 43 45 
2 46 44 
2 45 47 
2 48 46 
2 49 48 
2 47 50 
2 51 49 
2 50 52 
2 53 54 
2 54 51 
2 52 55 
2 55 56 
2 57 53 
2 58 59 
2 56 58 
2 60 57 
2 59 61 
2 62 60 
2 63 62 
2 61 64 
2 65 63 
2 64 66 
2 67 65 
2 66 68 
2 69 67 
2 68 70 
2 71 72 
2 72 69 
2 70 73 
2 73 74 
2 75 71 
2 76 77 
2 74 76 
2 78 75 
2 79 78 
2 77 80 
2 81 79 
2 80 82 
2 82 83 
2 84 81 
2 83 85 
2 86 84 
2 87 88 
2 85 87 
2 89 90 
2 90 86 
2 88 91 
2 92 89 
2 91 93 
2 94 92 
2 95 94 
2 93 96 
2 97 95 
2 96 98 
2 99 100 
2 100 97 
2 98 101 
2 102 99 
2 103 102 
2 101 104 
2 105 103 
2 104 106 
2 107 105 
2 106 108 
2 109 107 
2 108 110 
2 111 109 
2 110 112 
2 113 111 
2 112 114 
2 115 113 
2 114 116 
2 117 115 
2 116 118 
2 119 120 
2 120 117 
2 118 121 
2 122 119 
2 123 122 
2 121 124 
2 124 125 
2 126 123 
2 125 127 
2 128 129 
2 129 126 
2 127 130 
2 131 128 
2 130 132 
2 133 131 
2 134 133 
2 132 135 
2 136 137 
2 137 134 
2 135 138 
2 139 136 
2 138 140 
2 141 139 
2 140 142 
2 143 141 
2 142 144 
2 145 143 
2 144 146 
2 147 145 
2 146 148 
2 149 147 
2 148 150 
2 151 149 
2 150 152 
2 153 151 
2 152 154 
2 155 153 
2 154 156 
2 157 155 
2 156 158 
2 159 157 
2 158 160 
2 161 159 
2 160 162 
2 163 161 
2 162 164 
2 165 163 
2 164 166 
2 167 165 
2 166 168 
2 169 167 
2 168 170 
2 171 169 
2 170 172 
2 173 171 
2 172 174 
2 175 173 
2 174 176 
2 177 175 
2 176 178 
2 179 177 
2 178 180 
2 181 179 
2 180 182 
2 183 181 
2 182 184 
2 185 183 
2 184 186 
2 187 185 
2 186 188 
2 189 187 
2 188 190 
2 191 189 
2 190 192 
2 193 191 
2 192 194 
2 195 193 
2 194 196 
2 197 195 
2 198 197 
2 196 199 
2 200 198 
2 199 201 
2 202 200 
2 201 203 
2 204 202 
2 203 205 
2 206 204 
2 205 207 
2 208 209 
2 209 206 
2 207 210 
2 211 208 
2 212 211 
2 210 213 
2 214 212 
2 213 215 
2 216 214 
2 215 217 
2 218 216 
2 217 219 
2 220 218 
2 219 221 
2 222 220 
2 221 223 
2 224 222 
2 223 225 
2 226 224 
2 225 227 
2 228 226 
2 227 229 
2 230 228 
2 229 231 
2 232 233 
2 233 234 
2 234 235 
2 235 236 
2 236 237 
2 237 238 
2 238 239 
2 239 240 
2 240 241 
2 241 242 
2 242 230 
2 231 243 
2 243 244 
2 244 245 
2 245 246 
2 246 247 
2 247 248 
2 248 249 
2 249 250 
2 250 251 
2 251 252 
CELL_TYPES 252
3
3
3
3
3
3
3
3
3
3
3
3
3
3
3
3
3
3
3
3
3
3
3
3
3
3
3
3
3
3
3
3
3
3
3
3
3
3
3
3
3
3
3
3
3
3
3
3
3
3
3
3
3
3
3
3
3
3
3
3
3
3
3
3
3
3
3
3
3
3
3
3
3
3
3
3
3
3
3
3
3
3
3
3
3
3
3
3
3
3
3
3
3
3
3
3
3
3
3
3
3
3
3
3
3
3
3
3
3
3
3
3
3
3
3
3
3
3
3
3
3
3
3
3
3
3
3
3
3
3
3
3
3
3
3
3
3
3
3
3
3
3
3
3
3
3
3
3
3
3
3
3
3
3
3
3
3
3
3
3
3
3
3
3
3
3
3
3
3
3
3
3
3
3
3
3
3
3
3
3
3
3
3
3
3
3
3
3
3
3
3
3
3
3
3
3
3
3
3
3
3
3
3
3
3
3
3
3
3
3
3
3
3
3
3
3
3
3
3
3
3
3
3
3
3
3
3
3
3
3
3
3
3
3
3
3
3
3
3
3
3
3
3
3
3
3
3
3
3
3
3
3
POINT_DATA 253
SCALARS Velocities float 1
LOOKUP_TABLE default
-0.474098
-0.474098
-0.433569
-0.438409
-0.372489
-0.396603
-0.45468
-0.447289
-0.450511
-0.388653
-0.394425
-0.427242
-0.428561
-0.428561
-0.369735
-0.369735
-0.427694
-0.416475
-0.408839
-0.384548
-0.423654
-0.408603
-0.408603
-0.11208
-0.149839
-0.0114002
-0.0114002
-0.0170377
-0.0170377
-0.00127558
-0.00178505
-0.000468232
-0.00133963
-0.00133963
-0.000991695
-0.00133963
-0.00205776
-0.000587543
-0.00294582
-5.22305e-05
-0.00197159
4.77489e-05
-0
-0
-0.00231344
-0.00152258
-0.00302285
-0.00157849
-0.000577297
-0.000577297
-0.00150444
-0.000592615
-0.000855707
-0.00160715
-0.000592615
-0.000855707
-0.0034094
-0.00114902
-0.0034094
-0
0.000197513
-0.00186301
-0.00160544
-0.00160544
3.2077e-07
0.000233858
0.000185027
-0.00167819
4.68781e-05
-0.00217143
-0.00252857
0.00057511
-0.00217143
-0.00252857
-0.0020447
-0.00101393
-0.0020447
-0.00104147
-0.00101393
-0.00141514
6.79017e-05
-0.00194813
-0.00224001
-0.00224001
-0.00242757
-0.000675178
-0.0019368
-0.000675178
-0.00207136
-0.00215656
-0.0019368
-0.00104254
-0.00187467
-0.000126475
-0.00187467
-0.0024858
-0.00126765
-0.00306292
-0.00272622
-0.00906441
-0.00906441
-0.00207359
-0.00906441
-0.00170463
-0.000991398
-0.00195074
0.000472333
0.000441475
-0.00162892
-0.00264532
-0.000949319
-0.00195954
-0.00173008
-0.00327954
-0.00104828
-0.00386655
-0.000963179
-0.00365277
-0.000934819
-0.00211356
-0.00211356
-0.00761362
-0.00211356
-0.000536776
-0.00777103
-0.00777103
-0.00479309
-0.0049835
-0.00958444
-0.00479309
0.000552011
-0.00402136
-0.013232
-0.00919449
-0.00919449
-0.0107198
-0.0071921
-0.0071921
-0.00639295
-0.00424855
-0.00585142
-0.00170681
-0.00315369
-0.00143274
0.000553988
-0.00148023
-0.000723962
0.000146768
-0.00219849
-0.00178511
-0.000292477
-0.000588566
0.000744075
0.000471817
-0.00358921
0.000713492
-0.00666262
-0.00273772
-0.00465149
0.000812138
-0.00329902
-0.00964308
-0
-0.00833759
0.000455912
-0.00345595
0.00185521
-0.000955295
0.00213152
-0.00109028
-0
0.00182436
-0.00180575
-0.000543854
0.00136722
-0
-0.00125894
-0.000755271
-0.00213308
-0.00268238
-0.00378124
0.00232827
-0.00180382
-0.000326128
0.00141894
-0.00171296
0.00227932
0.00278627
-0.00180622
-0.000333608
-0.00150061
-0.000242666
0.00410294
-0.000147737
0.00408717
-0.000105644
-0.00202909
-0.000105644
0.00183215
0.0031322
-0.00225964
-0.00103926
-0.00149159
0.00492255
0.00323297
-0.0027541
-0.00073719
-0.00225739
0
0
-0
0
0
0
0
0
0
0
0
0
0
0
0
0
0
0
0
0
0
0
0
0
0
0
0
0
0
0
0
0
0
0
0
0
0
0
0
0
0
0
0
0
0
SCALARS Rate0 float 1
LOOKUP_TABLE default
7.52951e+14
7.52951e+14
6.49362e+14
6.24745e+14
5.81961e+14
5.69318e+14
5.75757e+14
5.7991e+14
6.3545e+14
5.61096e+14
5.53283e+14
6.11668e+14
6.64464e+14
6.64464e+14
9.24209e+14
9.24209e+14
7.25011e+14
6.41228e+14
6.50391e+14
4.95431e+14
6.69963e+14
1.05178e+15
1.05178e+15
3.76867e+14
4.61097e+14
4.42871e+13
4.42871e+13
6.54518e+13
6.54518e+13
5.49961e+12
7.52223e+12
2.55752e+12
5.45253e+12
5.45253e+12
5.19146e+12
5.45253e+12
8.35848e+12
3.29405e+12
1.34338e+13
1.12228e+11
8.54559e+12
5.40396e+12
0
0
6.7302e+12
6.23341e+12
8.78226e+12
5.85555e+12
3.03449e+12
3.03449e+12
5.03065e+12
2.15549e+12
3.94429e+12
8.72541e+12
2.15549e+12
3.94429e+12
9.15209e+12
4.59378e+12
9.15209e+12
0
1.16909e+12
8.47801e+12
5.87374e+12
5.87374e+12
2.95871e+12
2.54446e+12
3.75022e+12
5.58787e+12
6.35125e+12
7.87229e+12
9.19143e+12
5.06837e+12
7.87229e+12
9.19143e+12
1.13682e+13
3.04436e+12
1.13682e+13
5.75917e+12
3.04436e+12
4.72553e+12
8.89774e+12
6.05438e+12
9.43919e+12
9.43919e+12
8.73094e+12
2.22361e+12
7.01326e+12
2.22361e+12
1.04295e+13
5.83126e+12
7.01326e+12
5.80765e+12
6.35516e+12
5.20631e+11
6.35516e+12
9.29684e+12
3.51684e+12
1.24317e+13
7.18225e+12
2.25475e+13
2.25475e+13
9.70517e+12
2.25475e+13
8.55226e+12
5.82041e+12
6.96001e+12
3.16925e+12
4.87802e+12
6.06889e+12
1.01137e+13
5.45531e+12
6.65271e+12
6.30532e+12
1.35383e+13
5.83401e+12
1.56593e+13
3.03618e+12
1.45688e+13
3.35492e+12
7.25022e+12
7.25022e+12
2.99125e+13
7.25022e+12
2.02362e+12
3.01936e+13
3.01936e+13
1.73613e+13
1.47448e+13
3.70604e+13
1.73613e+13
1.17982e+13
1.65385e+13
5.31571e+13
3.76079e+13
3.76079e+13
4.51819e+13
3.20404e+13
3.20404e+13
2.67594e+13
1.89027e+13
2.45498e+13
4.69992e+12
1.27903e+13
4.31192e+12
7.33442e+12
4.51024e+12
4.11212e+12
2.17356e+12
6.58075e+12
5.39836e+12
1.45991e+12
3.00799e+12
3.0715e+12
1.13021e+13
1.19284e+13
7.00611e+12
2.55415e+13
1.61461e+13
1.73761e+13
6.15878e+12
9.40861e+12
3.74256e+13
0
3.05565e+13
1.11677e+13
1.29925e+13
1.62804e+13
2.89613e+12
1.70811e+13
3.51978e+12
0
3.11015e+12
1.0473e+13
2.96398e+12
8.85745e+12
0
4.54006e+12
4.21567e+12
7.49908e+12
9.34871e+12
1.1464e+13
9.85324e+12
1.04761e+13
1.75455e+12
7.54073e+12
9.70746e+12
1.04191e+13
5.21629e+12
1.07508e+13
1.74606e+12
5.07565e+12
5.64926e+11
2.73675e+12
6.28466e+11
3.79074e+12
4.50534e+11
7.02254e+12
4.50534e+11
4.3544e+12
5.63087e+12
6.96439e+12
5.83399e+12
5.25696e+12
5.87673e+12
5.93762e+12
9.17351e+12
2.77227e+12
1.24375e+13
3.07859e+12
3.07859e+12
0
8.26985e+11
8.26985e+11
0
2.13308e+12
1.94314e+12
4.69355e+12
3.59808e+12
5.64903e+12
2.55656e+12
3.81016e+12
2.61269e+12
3.85867e+12
2.43748e+12
8.56405e+11
5.68507e+11
2.6607e+12
5.41578e+11
3.77912e+12
1.42219e+12
1.56535e+15
1.56069e+15
5.74062e+14
5.69787e+14
6.10507e+14
5.7797e+14
5.69991e+14
5.54243e+14
5.98193e+14
5.66862e+14
5.76381e+14
5.7113e+14
1.56535e+15
5.66714e+14
5.59875e+14
5.64365e+14
5.79328e+14
5.70138e+14
5.64513e+14
5.81922e+14
5.73518e+14
5.84728e+14
5.74062e+14
SCALARS Rate1 float 1
LOOKUP_TABLE default
2.28165e+15
2.28165e+15
2.11588e+15
2.26932e+15
2.28595e+15
2.20451e+15
2.2718e+15
2.29246e+15
2.20965e+15
2.19995e+15
2.13968e+15
2.17392e+15
1.91884e+15
1.91884e+15
7.39889e+14
7.39889e+14
1.7668e+15
2.15471e+15
1.87001e+15
1.84354e+15
1.61375e+15
8.32799e+14
8.32799e+14
1.73573e+14
2.21262e+14
1.75714e+13
1.75714e+13
2.59359e+13
2.59359e+13
2.10809e+12
2.86297e+12
1.00095e+12
2.12075e+12
2.12075e+12
2.00727e+12
2.12075e+12
3.28171e+12
1.27671e+12
5.34537e+12
4.37654e+10
3.3495e+12
2.09416e+12
0
0
2.77965e+12
2.45839e+12
3.67356e+12
2.35778e+12
1.25808e+12
1.25808e+12
2.0164e+12
8.57772e+11
1.54884e+12
3.58253e+12
8.57772e+11
1.54884e+12
3.59696e+12
1.83458e+12
3.59696e+12
0
5.0827e+11
3.31371e+12
2.35418e+12
2.35418e+12
1.19213e+12
1.12018e+12
1.43901e+12
2.32624e+12
2.47019e+12
3.13178e+12
3.74093e+12
1.93224e+12
3.13178e+12
3.74093e+12
4.50285e+12
1.30309e+12
4.50285e+12
2.29055e+12
1.30309e+12
1.84313e+12
3.52371e+12
2.40518e+12
3.60764e+12
3.60764e+12
3.48942e+12
9.02416e+11
2.79818e+12
9.02416e+11
4.02557e+12
2.35858e+12
2.79818e+12
2.2116e+12
2.44989e+12
2.15419e+11
2.44989e+12
3.75001e+12
1.44789e+12
4.93291e+12
2.80066e+12
8.75696e+12
8.75696e+12
3.83518e+12
8.75696e+12
3.3355e+12
2.20423e+12
2.65941e+12
1.16393e+12
1.87387e+12
2.49229e+12
3.85636e+12
2.11113e+12
2.55376e+12
2.56363e+12
5.12056e+12
2.32121e+12
6.14419e+12
1.17442e+12
5.74058e+12
1.32706e+12
2.87216e+12
2.87216e+12
1.20112e+13
2.87216e+12
7.84804e+11
1.19246e+13
1.19246e+13
6.81379e+12
5.83423e+12
1.46238e+13
6.81379e+12
4.68357e+12
6.60962e+12
2.12339e+13
1.46776e+13
1.46776e+13
1.77751e+13
1.2571e+13
1.2571e+13
1.05446e+13
7.66776e+12
9.57062e+12
1.89957e+12
4.9628e+12
1.70902e+12
2.87994e+12
1.70982e+12
1.60125e+12
8.58744e+11
2.51119e+12
2.18348e+12
6.02155e+11
1.28816e+12
1.25605e+12
4.37969e+12
4.71862e+12
2.71226e+12
9.90985e+12
6.19185e+12
6.7825e+12
2.49487e+12
3.6638e+12
1.53379e+13
0
1.2124e+13
4.39528e+12
5.12497e+12
6.39523e+12
1.15533e+12
6.71304e+12
1.38792e+12
0
1.19906e+12
4.09687e+12
1.18494e+12
3.42953e+12
0
1.70679e+12
1.67629e+12
2.89007e+12
3.86093e+12
4.40243e+12
3.94592e+12
4.10027e+12
6.80684e+11
2.87061e+12
3.88924e+12
4.02275e+12
2.08538e+12
4.10717e+12
6.98136e+11
1.95622e+12
2.41579e+11
1.08508e+12
2.66033e+11
1.52497e+12
1.6807e+11
2.84763e+12
1.6807e+11
1.65594e+12
2.27673e+12
2.72696e+12
2.3376e+12
2.11295e+12
2.42092e+12
2.38773e+12
3.79375e+12
1.10626e+12
5.16531e+12
1.21579e+12
1.21579e+12
0
3.32012e+11
3.32012e+11
0
7.96259e+11
7.69515e+11
1.81104e+12
1.42921e+12
2.27124e+12
1.03698e+12
1.5105e+12
1.06925e+12
1.51349e+12
9.95856e+11
3.42823e+11
2.28266e+11
1.01419e+12
2.35626e+11
1.45115e+12
6.04825e+11
1.12758e+15
1.12297e+15
2.27123e+15
2.23413e+15
2.3945e+15
2.27742e+15
2.26011e+15
2.20144e+15
2.36721e+15
2.23557e+15
2.27856e+15
2.25372e+15
1.12758e+15
2.23753e+15
2.21826e+15
2.22548e+15
2.28805e+15
2.26609e+15
2.2369e+15
2.29642e+15
2.27017e+15
2.31176e+15
2.27123e+15
SCALARS Rate2 float 1
LOOKUP_TABLE default
9.12661e+15
9.12661e+15
8.46351e+15
9.07727e+15
9.14379e+15
8.81806e+15
9.0872e+15
9.16985e+15
8.83859e+15
8.79979e+15
8.55871e+15
8.69567e+15
7.67536e+15
7.67536e+15
2.95956e+15
2.95956e+15
7.06721e+15
8.61884e+15
7.48002e+15
7.37417e+15
6.45499e+15
3.3312e+15
3.3312e+15
6.94292e+14
8.85047e+14
7.02856e+13
7.02856e+13
1.03744e+14
1.03744e+14
8.43235e+12
1.14519e+13
4.00381e+12
8.48298e+12
8.48298e+12
8.02907e+12
8.48298e+12
1.31268e+13
5.10685e+12
2.13815e+13
1.75062e+11
1.3398e+13
8.37666e+12
0
0
1.11186e+13
9.83357e+12
1.46942e+13
9.43112e+12
5.03233e+12
5.03233e+12
8.06562e+12
3.43109e+12
6.19535e+12
1.43301e+13
3.43109e+12
6.19535e+12
1.43878e+13
7.33833e+12
1.43878e+13
0
2.03308e+12
1.32548e+13
9.41672e+12
9.41672e+12
4.76851e+12
4.48073e+12
5.75604e+12
9.30495e+12
9.88077e+12
1.25271e+13
1.49637e+13
7.72895e+12
1.25271e+13
1.49637e+13
1.80114e+13
5.21237e+12
1.80114e+13
9.16219e+12
5.21237e+12
7.37254e+12
1.40948e+13
9.6207e+12
1.44306e+13
1.44306e+13
1.39577e+13
3.60966e+12
1.11927e+13
3.60966e+12
1.61023e+13
9.43432e+12
1.11927e+13
8.84638e+12
9.79956e+12
8.61677e+11
9.79956e+12
1.5e+13
5.79156e+12
1.97316e+13
1.12026e+13
3.50278e+13
3.50278e+13
1.53407e+13
3.50278e+13
1.3342e+13
8.81692e+12
1.06376e+13
4.65572e+12
7.49548e+12
9.96916e+12
1.54254e+13
8.44452e+12
1.0215e+13
1.02545e+13
2.04822e+13
9.28483e+12
2.45768e+13
4.69768e+12
2.29623e+13
5.30826e+12
1.14886e+13
1.14886e+13
4.80449e+13
1.14886e+13
3.13922e+12
4.76984e+13
4.76984e+13
2.72552e+13
2.33369e+13
5.84953e+13
2.72552e+13
1.87343e+13
2.64385e+13
8.49355e+13
5.87106e+13
5.87106e+13
7.11005e+13
5.02838e+13
5.02838e+13
4.21784e+13
3.06711e+13
3.82825e+13
7.59826e+12
1.98512e+13
6.83608e+12
1.15197e+13
6.83928e+12
6.405e+12
3.43498e+12
1.00448e+13
8.73392e+12
2.40862e+12
5.15263e+12
5.02421e+12
1.75188e+13
1.88745e+13
1.08491e+13
3.96394e+13
2.47674e+13
2.713e+13
9.97947e+12
1.46552e+13
6.13515e+13
0
4.84962e+13
1.75811e+13
2.04999e+13
2.55809e+13
4.62133e+12
2.68521e+13
5.55169e+12
0
4.79624e+12
1.63875e+13
4.73977e+12
1.37181e+13
0
6.82717e+12
6.70517e+12
1.15603e+13
1.54437e+13
1.76097e+13
1.57837e+13
1.64011e+13
2.72274e+12
1.14825e+13
1.5557e+13
1.6091e+13
8.34154e+12
1.64287e+13
2.79254e+12
7.82489e+12
9.66317e+11
4.34032e+12
1.06413e+12
6.09987e+12
6.72281e+11
1.13905e+13
6.72281e+11
6.62376e+12
9.10693e+12
1.09078e+13
9.35042e+12
8.4518e+12
9.68368e+12
9.55093e+12
1.5175e+13
4.42502e+12
2.06613e+13
4.86317e+12
4.86317e+12
0
1.32805e+12
1.32805e+12
0
3.18503e+12
3.07806e+12
7.24417e+12
5.71683e+12
9.08496e+12
4.14791e+12
6.04201e+12
4.27701e+12
6.05395e+12
3.98342e+12
1.37129e+12
9.13066e+11
4.05675e+12
9.42504e+11
5.80459e+12
2.4193e+12
4.51032e+15
4.49186e+15
9.0849e+15
8.93651e+15
9.578e+15
9.10969e+15
9.04045e+15
8.80574e+15
9.46886e+15
8.94228e+15
9.11423e+15
9.01488e+15
4.51032e+15
8.95013e+15
8.87304e+15
8.90191e+15
9.15219e+15
9.06436e+15
8.94762e+15
9.18568e+15
9.08069e+15
9.24703e+15
9.0849e+15
SCALARS Rate3 float 1
LOOKUP_TABLE default
1.08669e+14
1.08669e+14
8.75372e+13
1.08314e+14
1.19196e+14
1.10353e+14
9.39187e+13
9.51726e+13
7.24118e+13
8.54608e+13
7.10539e+13
7.94696e+13
1.2174e+14
1.2174e+14
4.97779e+13
4.97779e+13
1.01902e+14
1.31078e+14
1.12428e+14
1.34946e+14
1.13762e+14
7.88111e+13
7.88111e+13
2.0688e+13
4.39271e+13
7.93874e+12
7.93874e+12
6.85519e+12
6.85519e+12
9.01045e+11
2.1763e+12
0
8.78748e+11
8.78748e+11
2.73684e+11
8.78748e+11
2.08742e+12
0
2.00492e+12
0
5.44047e+11
6.05933e+12
8.125e+12
8.125e+12
3.59379e+12
1.34135e+12
7.88879e+12
1.7417e+12
0
0
3.67282e+11
1.14375e+12
7.51755e+11
0
1.14375e+12
7.51755e+11
2.33409e+11
1.7938e+12
2.33409e+11
0
9.90856e+12
3.73292e+11
3.10322e+12
3.10322e+12
4.63155e+12
1.37263e+13
1.30083e+13
2.64294e+11
1.0709e+13
3.46575e+12
3.00626e+12
2.75969e+13
3.46575e+12
3.00626e+12
0
1.26697e+11
0
0
1.26697e+11
2.61284e+11
8.66917e+12
5.45896e+11
1.92937e+12
1.92937e+12
4.72425e+12
7.027e+10
8.32646e+11
7.027e+10
7.68074e+11
6.50548e+12
8.32646e+11
0
3.71244e+11
0
3.71244e+11
3.48704e+12
9.21468e+10
3.34885e+12
1.02957e+11
9.57429e+11
9.57429e+11
1.34717e+12
9.57429e+11
5.36016e+11
0
3.90378e+12
2.27212e+13
2.49545e+13
3.11157e+12
4.68553e+12
0
4.07436e+12
3.78015e+11
3.99988e+12
0
4.89141e+12
2.03191e+11
5.27762e+12
9.20342e+11
4.76881e+12
4.76881e+12
9.49489e+12
4.76881e+12
3.00092e+11
6.70697e+12
6.70697e+12
8.35293e+12
9.60538e+12
1.26063e+13
8.35293e+12
3.80346e+13
4.98172e+12
1.13898e+13
6.10367e+12
6.10367e+12
1.02454e+13
4.36777e+12
4.36777e+12
5.45931e+12
4.2613e+12
6.0696e+12
1.67688e+11
5.10591e+12
2.18743e+11
3.29876e+13
1.21156e+11
0
8.92668e+12
6.0837e+12
2.24283e+11
0
0
3.4609e+13
3.49112e+13
4.49153e+11
3.88044e+13
9.60915e+12
0
8.48999e+12
4.19068e+13
1.52592e+11
1.9829e+12
4.46875e+13
1.47799e+13
3.45767e+13
6.5847e+12
9.81159e+13
9.84088e+10
1.09225e+14
1.81753e+11
0
7.76275e+13
0
0
6.75124e+13
1.05625e+14
3.30529e+11
0
1.16388e+12
6.33578e+11
4.79476e+11
1.01505e+14
0
0
6.20087e+13
0
1.01678e+14
1.18559e+14
0
0
3.7074e+11
1.99063e+14
1.66747e+14
0
1.68666e+14
0
4.64181e+11
0
7.89635e+13
1.343e+14
3.49702e+11
0
4.74099e+11
2.06357e+14
1.38634e+14
6.55648e+11
6.3985e+11
0
5.06065e+11
5.06065e+11
0
0
0
2.39687e+14
1.9227e+14
1.93626e+11
0
3.74604e+14
2.42583e+14
3.06416e+14
1.27267e+11
2.0117e+14
3.71931e+14
1.98213e+14
7.15e+14
0
5.36093e+14
6.92227e+10
2.80467e+14
1.48968e+11
3.48021e+14
3.21025e+14
4.94575e+14
5.14042e+14
5.14933e+14
4.79618e+14
5.12174e+14
5.52792e+14
5.46766e+14
4.89291e+14
4.53239e+14
5.47919e+14
3.48021e+14
4.94148e+14
4.5512e+14
4.80624e+14
5.55577e+14
5.17241e+14
5.17586e+14
5.0846e+14
5.43731e+14
4.73489e+14
4.94575e+14
SCALARS Rate4 float 1
LOOKUP_TABLE default
1.57025e+15
1.57025e+15
1.55477e+15
1.65234e+15
1.1277e+15
1.42518e+15
2.01526e+15
1.89458e+15
1.72207e+15
1.32079e+15
1.41163e+15
1.56371e+15
1.63373e+15
1.63373e+15
8.94296e+14
8.94296e+14
1.44363e+15
1.43999e+15
1.44899e+15
1.85676e+15
1.89956e+15
1.67134e+15
1.67134e+15
5.57731e+14
5.39632e+14
1.49243e+14
1.49243e+14
1.54442e+14
1.54442e+14
1.01584e+14
9.82488e+13
2.8125e+14
2.48108e+13
2.48108e+13
1.59598e+14
2.48108e+13
4.91774e+13
3.9375e+14
1.37235e+14
2.8125e+14
3.08661e+13
6.17787e+13
1.6875e+14
1.6875e+14
4.22756e+13
6.76356e+13
3.92822e+14
2.45771e+13
5.625e+14
5.625e+14
5.08545e+12
1.42079e+14
3.98731e+14
4.5e+14
1.42079e+14
3.98731e+14
2.15454e+12
1.3874e+14
2.15454e+12
0
4.2029e+14
4.04406e+13
9.74555e+13
9.74555e+13
3.9375e+14
3.92924e+14
3.9375e+14
5.85513e+12
7.08226e+13
2.51274e+14
6.77905e+13
2.89281e+14
2.51274e+14
6.77905e+13
3.375e+14
2.04664e+12
3.375e+14
2.8125e+14
2.04664e+12
4.34134e+12
1.37036e+14
4.1992e+12
1.4904e+14
1.4904e+14
2.13932e+14
2.27026e+12
1.15289e+13
2.27026e+12
1.88654e+14
1.88469e+14
1.15289e+13
1.125e+14
5.99702e+12
1.125e+14
5.99702e+12
1.48917e+14
1.27588e+12
8.70416e+13
1.42556e+12
2.20945e+12
2.20945e+12
5.0625e+14
2.20945e+12
1.125e+14
6.1875e+14
2.07678e+14
6.87542e+14
5.6564e+14
3.92222e+14
1.49321e+14
6.75e+14
8.38932e+13
9.72038e+12
1.02762e+14
3.9375e+14
1.24606e+14
2.18821e+12
1.98761e+14
8.2456e+12
3.5465e+14
3.5465e+14
3.02882e+14
3.5465e+14
5.40165e+12
3.51485e+14
3.51485e+14
1.26197e+14
1.91035e+14
2.8542e+14
1.26197e+14
2.80891e+14
3.77478e+14
3.21383e+14
1.67363e+14
1.67363e+14
3.58041e+14
2.18696e+14
2.18696e+14
1.60818e+14
4.19132e+14
2.37154e+14
1.49261e+12
3.32619e+14
2.37973e+12
1.00581e+15
2.37653e+12
1.29375e+15
3.86794e+14
2.62733e+14
3.10546e+12
1.18125e+15
1.06875e+15
5.99447e+14
6.13692e+14
1.0217e+13
8.60359e+14
4.08041e+14
1.18125e+15
2.43146e+14
7.50432e+14
3.33602e+12
7.68378e+13
1.125e+15
6.36696e+14
7.04239e+14
5.35626e+14
1.10468e+15
1.74411e+12
9.91212e+14
2.8637e+12
9e+14
1.25627e+15
1.8e+15
1.29375e+15
1.39924e+15
1.2375e+15
5.7207e+12
2.08125e+15
1.01596e+13
1.19218e+13
5.78776e+12
1.11787e+15
2.475e+15
2.1375e+15
1.04254e+15
2.19375e+15
1.45528e+15
1.48572e+15
2.75625e+15
2.25e+15
5.22183e+12
2.30625e+15
2.1481e+15
3.0375e+15
2.53297e+15
2.925e+15
8.279e+12
2.925e+15
1.13961e+15
2.26937e+15
4.15031e+12
4.1625e+15
7.0773e+12
2.87015e+15
2.63145e+15
9.39124e+12
8.38822e+12
6.24375e+15
6.08159e+12
6.08159e+12
0
5.0625e+15
5.0625e+15
3.54375e+15
3.27539e+15
2.2763e+12
6.35625e+15
4.30871e+15
4.14418e+15
4.12576e+15
1.51741e+12
2.73493e+15
4.14381e+15
3.2525e+15
6.13125e+15
9.39375e+15
6.29726e+15
1.07041e+12
4.87656e+15
1.84619e+12
5.72105e+15
5.42422e+15
7.70983e+15
8.50464e+15
7.86469e+15
8.11768e+15
8.34571e+15
8.49265e+15
9.03758e+15
8.2941e+15
7.08287e+15
8.35443e+15
5.72105e+15
8.0473e+15
7.35131e+15
8.08289e+15
8.80695e+15
8.17223e+15
7.64841e+15
7.43526e+15
8.51878e+15
7.27269e+15
7.70983e+15
SCALARS Rate5 float 1
LOOKUP_TABLE default
1.18263e+15
1.18263e+15
1.15036e+15
1.25676e+15
8.44928e+14
1.08894e+15
1.48271e+15
1.39444e+15
1.30645e+15
1.04238e+15
1.105e+15
1.23809e+15
1.28834e+15
1.28834e+15
7.24945e+14
7.24945e+14
1.13363e+15
1.1046e+15
1.12373e+15
1.40181e+15
1.46143e+15
1.33192e+15
1.33192e+15
4.66161e+14
4.48452e+14
1.25559e+14
1.25559e+14
1.14714e+14
1.14714e+14
9.31179e+12
6.99142e+13
4.95101e+12
1.6883e+13
1.6883e+13
2.00727e+13
1.6883e+13
7.02633e+13
2.53046e+13
9.80572e+13
0
3.65371e+13
8.22229e+12
1.125e+14
1.125e+14
1.27139e+13
1.64014e+13
7.19514e+13
3.39849e+13
3.66319e+13
3.66319e+13
6.90102e+13
5.14133e+13
2.55242e+13
1.55015e+13
5.14133e+13
2.55242e+13
4.43388e+13
8.88259e+13
4.43388e+13
3.75e+13
1.62976e+14
1.76215e+13
1.65263e+14
1.65263e+14
1.47035e+14
1.80226e+14
2.16929e+14
2.63973e+13
8.33765e+13
3.34207e+13
2.62195e+13
1.13172e+13
3.34207e+13
2.62195e+13
8.35779e+12
1.30638e+13
8.35779e+12
6.01546e+12
1.30638e+13
9.61121e+13
1.03059e+13
3.6772e+13
2.01444e+13
2.01444e+13
1.04394e+14
1.94334e+13
4.55699e+13
1.94334e+13
2.80776e+13
9.94156e+13
4.55699e+13
3.58671e+12
1.07947e+14
4.53678e+12
1.07947e+14
3.75925e+13
4.52039e+12
9.94454e+13
8.18873e+12
3.96151e+13
3.96151e+13
2.36276e+13
3.96151e+13
3.91082e+13
7.52133e+12
8.64563e+13
2.15284e+13
2.73365e+14
1.08736e+14
2.08845e+14
1.28791e+13
8.3937e+13
1.04982e+14
1.58535e+14
1.18089e+14
1.95499e+14
8.60351e+13
1.44778e+14
5.67622e+13
1.39845e+14
1.39845e+14
1.48428e+14
1.39845e+14
1.21079e+13
4.51195e+13
4.51195e+13
2.29827e+14
4.5627e+13
2.21394e+14
2.29827e+14
1.0751e+14
8.70448e+13
1.60689e+14
9.84752e+13
9.84752e+13
2.43966e+14
1.32238e+14
1.32238e+14
1.46164e+14
1.81599e+14
1.25284e+14
4.09761e+13
2.77255e+14
4.125e+14
1.80343e+14
3.66801e+13
5.97488e+13
2.76946e+13
2.93942e+14
1.67766e+14
1.33186e+14
8.71517e+13
1.36615e+14
1.89815e+14
9.14978e+13
1.90576e+14
1.1849e+14
7.51709e+13
2.89781e+14
1.68452e+14
3.94594e+14
1.39588e+14
7.5e+14
2.28553e+14
2.31502e+14
2.09824e+14
3.65443e+14
3.41803e+13
2.22829e+14
1.2375e+15
0
1.55917e+14
8.43003e+13
4.75978e+13
1.96668e+14
1.24461e+12
1.04124e+14
2.7074e+14
8.55701e+13
1.04605e+14
2.75014e+14
1.78375e+13
3.82983e+13
7.51637e+14
9.67552e+12
2.56922e+13
3.02627e+13
4.80609e+13
2.04205e+13
4.43239e+13
1.36537e+13
0
6.67137e+12
0
3.43141e+13
1.2876e+13
2.8503e+14
1.2876e+13
3.97349e+13
8.66342e+14
7.55759e+13
6.48141e+14
3.00979e+14
4.00398e+14
3.77861e+14
1.03403e+14
2.37346e+14
1.81217e+15
8.42095e+13
8.42095e+13
4.35e+15
2.68195e+14
2.68195e+14
2.3625e+15
1.28976e+13
3.80216e+13
5.31386e+14
9.63464e+14
3.4282e+13
7.57456e+14
4.04448e+12
8.18756e+13
1.43472e+13
3.6605e+12
4.0875e+15
4.32616e+12
3.51985e+15
7.52639e+12
1.67707e+15
1.18015e+14
4.49986e+15
4.69178e+15
6.69642e+15
7.29055e+15
6.66207e+15
6.92132e+15
7.15037e+15
7.07849e+15
7.58465e+15
7.0426e+15
6.09513e+15
7.21687e+15
4.49986e+15
6.94523e+15
6.35714e+15
7.01836e+15
7.38523e+15
6.84394e+15
6.59812e+15
6.38773e+15
7.18434e+15
6.13825e+15
6.69642e+15
SCALARS Rate6 float 1
LOOKUP_TABLE default
7.78352e+10
7.78352e+10
7.78352e+10
7.78352e+10
7.78352e+10
7.78352e+10
7.78352e+10
7.78352e+10
7.78352e+10
7.78352e+10
7.78352e+10
7.78352e+10
7.78352e+10
7.78352e+10
7.78352e+10
7.78352e+10
7.78352e+10
7.78352e+10
7.78352e+10
7.78352e+10
7.78352e+10
7.78352e+10
7.78352e+10
7.78352e+10
7.78352e+10
7.78352e+10
7.78352e+10
7.78352e+10
7.78352e+10
7.78352e+10
7.78352e+10
7.78352e+10
7.78352e+10
7.78352e+10
7.78352e+10
7.78352e+10
7.78352e+10
7.78352e+10
7.78352e+10
7.78352e+10
7.78352e+10
7.78352e+10
0
0
7.78352e+10
7.78352e+10
7.78352e+10
7.78352e+10
7.78352e+10
7.78352e+10
7.78352e+10
7.78352e+10
7.78352e+10
7.78352e+10
7.78352e+10
7.78352e+10
7.78352e+10
7.78352e+10
7.78352e+10
0
7.78352e+10
7.78352e+10
7.78352e+10
7.78352e+10
7.78352e+10
7.78352e+10
7.78352e+10
7.78352e+10
7.78352e+10
7.78352e+10
7.78352e+10
7.78352e+10
7.78352e+10
7.78352e+10
7.78352e+10
7.78352e+10
7.78352e+10
7.78352e+10
7.78352e+10
7.78352e+10
7.78352e+10
7.78352e+10
7.78352e+10
7.78352e+10
7.78352e+10
7.78352e+10
7.78352e+10
7.78352e+10
7.78352e+10
7.78352e+10
7.78352e+10
7.78352e+10
7.78352e+10
7.78352e+10
7.78352e+10
7.78352e+10
7.78352e+10
7.78352e+10
7.78352e+10
7.78352e+10
7.78352e+10
7.78352e+10
7.78352e+10
7.78352e+10
7.78352e+10
7.78352e+10
7.78352e+10
7.78352e+10
7.78352e+10
7.78352e+10
7.78352e+10
7.78352e+10
7.78352e+10
7.78352e+10
7.78352e+10
7.78352e+10
7.78352e+10
7.78352e+10
7.78352e+10
7.78352e+10
7.78352e+10
7.78352e+10
7.78352e+10
7.78352e+10
7.78352e+10
7.78352e+10
7.78352e+10
7.78352e+10
7.78352e+10
7.78352e+10
7.78352e+10
7.78352e+10
7.78352e+10
7.78352e+10
7.78352e+10
7.78352e+10
7.78352e+10
7.78352e+10
7.78352e+10
7.78352e+10
7.78352e+10
7.78352e+10
7.78352e+10
7.78352e+10
7.78352e+10