# vtk DataFile Version 4.2
vtk output
ASCII
DATASET UNSTRUCTURED_GRID
POINTS 809 float
25 100 60 30 100 60 25 94.444 60 
25 100 54 28.346 94.794 57.197 27.852 97.438 54.284 
32.5 95.237 60 32.5 100 55.237 28.602 93.925 53.631 
35 100 60 29.924 90.968 60 29.532 100 50.642 
25 90.769 54.107 25 88.889 60 31.107 96.907 50.783 
32.475 92.226 55.901 25 100 48 35.231 97.029 54.194 
25 94.318 49.104 37.5 100 55.237 37.5 95.237 60 
27.727 89.127 52.316 35 90.474 60 35 100 50.474 
30.802 92.508 49.777 36.439 92.266 55.227 28.208 94.417 46.745 
40 100 60 30.364 86.381 55.967 25 96.302 44.601 
25 85.269 54.088 32.12 100 45.797 32.12 85.797 60 
25 88.036 49.334 40.007 95.798 55.137 32.916 95.482 46.322 
25 83.333 60 37.831 94.319 50.861 40.076 90.968 60 
33.046 86.491 51.841 28.445 84.458 51.769 25 90.802 44.581 
25 100 42 40.468 100 50.642 31.071 91.02 45.445 
36.809 89.41 51.115 29.099 96.879 42.314 27.997 82.023 56.132 
34.908 84.654 56.106 28.614 86.179 47.683 37.88 85.797 60 
32.736 86.923 48.216 38.614 87.252 55.274 35.903 91.458 46.621 
40.953 91.227 53.29 31.784 82.91 53.647 34.748 82.68 60 
45 100 60 34.904 98.01 42.352 37.88 100 44.203 
25 94.335 40.341 25 82.536 49.315 39.283 95.264 46.04 
29.975 79.947 60 45 94.444 60 29.099 91.069 41.577 
45 100 54 25 79.769 54.068 29.532 100 39.358 
25 85.303 44.562 40.622 91.037 48.283 34.221 87.842 44.678 
28.649 79.314 53.433 25 77.778 60 30.379 85.307 44.042 
35.025 92.406 41.337 45 91.728 53.816 38.062 86.935 46.93 
29.099 82.547 46.14 41.092 86.797 50.931 30.968 81.238 48.575 
35 100 39.526 45 88.889 60 35.891 82.229 50.42 
32.312 78.457 56.758 34.314 83.955 46.195 27.754 77.069 56.997 
45 100 48 25 88.069 39.808 45 94.461 49.044 
36.657 80.206 54.951 32.344 95.901 37.883 40.64 82.151 57.31 
25 100 36 42.162 96.352 43.051 31.216 87.601 39.594 
39.352 89.543 42.837 33.275 78.186 51.838 39.501 79.914 60 
34.729 77.18 60 37.243 96.217 38.553 35 94.451 37.767 
40.541 81.956 52.294 45 86.229 53.834 28.241 97.174 35.256 
45 88.962 49.062 25 77.036 49.295 25 79.803 44.542 
40.468 100 39.358 29.796 89.243 37.017 29.956 74.447 60 
45 83.333 60 32.5 100 34.763 34.838 87.455 39.013 
41.027 92.174 40.553 25 74.269 54.049 29.956 74.656 54.349 
25 90.836 35.055 28.897 83.323 39.674 25 82.569 39.789 
31.692 80.027 43.525 45 92.164 43.911 38.4 84.626 42.485 
34.904 78.589 47.106 45 100 42 39.143 81.252 46.721 
37.651 90.937 37.939 35.789 75.262 55.053 25 72.222 60 
34.052 83.166 39.699 28.346 94.794 32.803 41.025 77.73 54.961 
32.475 92.226 34.099 30.733 75.806 46.862 45 83.464 49.081 
37.5 100 34.763 45 80.731 53.853 33.119 73.689 52.403 
32.039 84.28 37.101 38.655 76.562 50.232 35 95.901 33.175 
45 86.197 44.308 25 85.336 35.035 36.623 79.931 42.584 
28.724 87.635 33.836 45 94.647 39.284 31.534 71.692 55.901 
39.482 74.414 60 41.554 86.654 39.224 37.525 92.226 34.099 
28.434 77.891 40.31 45 77.778 60 34.709 71.681 60 
25 74.303 44.523 25 100 30 41.759 97.174 35.256 
33.097 79.158 39.59 30 100 30 25 71.536 49.276 
25 94.444 30 25 77.07 39.769 40.63 89.577 35.827 
45 88.93 39.535 35.183 73.599 47.59 38.832 76.108 46.051 
45 100 36 32.5 95.237 30 28.204 69.189 55.499 
42.214 77.217 47.041 33.938 75.738 42.147 29.936 68.947 60 
30.917 71.372 48.344 34.951 85.048 34.138 37.841 71.843 53.63 
35 100 30 41.354 74.665 50.373 45 77.964 49.1 
29.924 90.968 30 25 68.769 54.029 45 80.697 44.327 
29.099 82.835 33.35 25 88.889 30 29.581 74.246 41.408 
25 79.836 35.016 41.654 94.794 32.803 45 75.231 53.873 
42.225 72.654 57.235 40.538 77.614 42.009 33.429 68.993 54.154 
38.152 79.582 38.055 37.5 95.237 30 41.767 84.635 36.258 
35.73 70.386 50.255 42.679 81.309 39.369 45 92.143 34.972 
35 90.474 30 30.467 79.166 34.933 45 83.43 39.554 
25 66.667 60 28.566 67.993 51.025 36.119 68.556 56.548 
40 100 30 32.189 71.156 44.385 32.12 85.797 30 
39.802 71.891 47.842 28.506 75.486 36.588 45 72.222 60 
40.423 69.761 55.418 33.211 76.544 36.426 39.463 68.914 60 
25 83.333 30 35.536 80.432 33.733 40.076 90.968 30 
25 68.803 44.503 25 71.57 39.75 45 86.163 34.781 
37.089 71.615 43.39 34.69 66.181 60 32.001 65.706 56.405 
41.045 86.135 31.833 26.987 64.937 56.581 45 75.197 44.347 
37.88 85.797 30 37.937 74.39 38.915 25 66.036 49.256 
27.52 64.834 54.732 33.727 72.002 39.681 45 72.464 49.12 
25 74.336 34.996 34.748 82.68 30 36.331 68.333 47.133 
40.554 80.81 33.786 45 100 30 39.023 67.767 51.813 
45 77.93 39.574 41.958 72.789 43.044 40.971 69.02 49.424 
29.975 79.947 30 45 94.444 30 42.224 76.728 37.364 
45 69.731 53.892 29.917 63.447 60 29.735 68.48 40.917 
25 63.269 54.01 31.1 66.331 45.245 25 77.778 30 
38.332 76.353 34.214 45 80.663 34.801 45 88.889 30 
39.882 65.54 55.567 31.73 63.547 52.342 30.861 71.663 35.573 
35.722 63.546 55.278 34.582 67.55 41.839 32.757 74.074 32.389 
34.65 63.993 49.452 45 66.667 60 25 61.111 60 
39.501 79.914 30 39.244 67.359 44.306 34.729 77.18 30 
35.743 71.877 35.217 38.076 69.622 38.889 30.352 61.183 56.842 
39.443 63.414 60 25 66.07 39.73 45 69.697 44.366 
38.706 64.678 48.317 45 72.43 39.593 29.956 74.447 30 
45 83.333 30 25 63.303 44.483 25 68.836 34.977 
45 66.964 49.139 40.84 72.233 35.609 42.06 68.534 41.53 
42.208 64.232 52.348 34.671 60.681 60 33.835 67.835 36.882 
45 75.163 34.82 35.274 63.572 44.823 25 72.222 30 
25 60.536 49.237 30.315 59.954 52.228 31.784 64.364 40.339 
45 64.231 53.912 30.683 61.383 45.432 29.877 66.362 35.74 
33.994 59.588 53.933 39.482 74.414 30 37.833 60.054 57.135 
41.683 61.407 55.262 29.898 57.947 60 45 77.778 30 
34.709 71.681 30 33.299 69.056 32.042 25 57.769 53.99 
39.098 60.495 51.996 36.778 60.049 48.069 29.936 68.947 30 
37.229 67.061 34.338 36.611 63.09 39.997 45 66.93 39.613 
45 61.111 60 41.968 66.964 36.905 45 64.197 44.386 
31.513 62.559 38.026 40.921 60.591 48.938 39.905 61.661 44.487 
45 69.663 34.84 42.433 64.03 40.853 25 60.57 39.711 
30.076 56.156 55.502 25 63.337 34.957 25 55.556 60 
39.424 57.914 60 31.17 57.655 47.343 45 61.464 49.159 
25 66.667 30 25 57.803 44.464 32.364 63.326 34.581 
28.245 55.589 50.862 45 72.222 30 39.463 68.914 30 
33.204 55.898 51.583 40.498 57.493 53.437 34.651 55.181 60 
41.941 66.683 32.895 36.259 58.4 43.355 34.69 66.181 30 
25 55.036 49.217 45 58.731 53.931 29.099 57.814 41.288 
42.151 56.736 57.619 40.152 63.424 35.156 38.636 56.184 50.556 
27.31 54.736 46.003 33.701 57.893 39.894 29.917 63.447 30 
35.575 55.252 47.206 40.184 56.92 46.115 37.788 59.373 38.389 
29.878 52.447 60 35.766 53.59 55.232 45 61.43 39.632 
25 52.269 53.971 45 64.163 34.859 29.643 59.888 33.216 
45 58.697 44.405 35.728 60.161 34.133 45 55.556 60 
41.185 54.06 54.998 30.701 51.808 53.071 25 57.837 34.938 
45 66.667 30 25 61.111 30 40.653 57.406 41.139 
31.357 52.707 48.175 25 55.07 39.691 39.443 63.414 30 
45 55.964 49.178 30.805 54.375 41.303 39.405 52.414 60 
25 50 60 30.191 56.031 36.603 25 52.303 44.444 
34.671 60.681 30 35.588 51.583 50.633 39.933 58.32 34.935 
37.901 53.665 43.048 42.279 52.908 50.474 45 53.231 53.951 
34.632 49.681 60 39.514 52.158 47.557 25 49.536 49.198 
36.193 54.228 38.36 29.898 57.947 30 45 58.663 34.879 
27.259 52.36 38.374 33.467 48.412 56.616 42.127 50.499 57.378 
45 55.93 39.652 35.143 50.463 45.759 28.999 47.656 55.539 
45 61.111 30 40.247 49.613 52.704 45 53.197 44.425 
29.859 46.947 60 25 46.769 53.951 25 55.556 30 
39.424 57.914 30 45 50 60 25 52.337 34.918 
32.108 51.464 37.425 32.921 47.574 49.212 35.81 47.342 53.311 
28.059 46.808 50.204 25 49.57 39.671 34.209 53.459 33.325 
45 50.464 49.198 35.491 49.887 40.784 28.9 52.195 33.632 
39.778 53.648 34.893 34.651 55.181 30 39.385 46.914 60 
30.808 48.332 41.712 40.093 51.198 39.265 37.921 47.551 48.761 
39.39 46.831 56.795 29.653 46.981 45.446 39.74 49.152 43.74 
25 46.803 44.425 25 44.444 60 42.817 48.446 47.545 
31.575 44.656 53.07 45 47.731 53.971 29.878 52.447 30 
34.613 44.181 60 45 53.163 34.899 36.617 49.877 35.891 
25 44.036 49.178 45 50.43 39.671 45 55.556 30 
28.654 47.981 36.351 34.88 45.09 46.671 39.909 44.618 52.318 
28.474 42.405 55.147 39.405 52.414 30 45 47.697 44.444 
25 50 30 32.515 48.734 33.231 35.514 43.395 50.223 
30.863 43.074 48.358 33.284 46.591 37.706 36.234 42.685 55.141 
29.84 41.447 60 39.749 44.732 46.497 25 46.837 34.899 
35.121 44.933 41.821 25 41.269 53.931 45 44.444 60 
41.466 48.921 35.006 34.632 49.681 30 38.154 46.107 38.829 
25 44.07 39.652 45 44.964 49.217 40.901 44.942 42.866 
41.164 42.043 56.378 39.366 41.414 60 30.645 43.094 40.159 
31.856 41.827 44.649 25 41.303 44.405 25 38.889 60 
29.859 46.947 30 32.403 39.386 56.643 45 47.663 34.918 
45 42.231 53.99 28.233 44.28 34.099 34.713 40.832 45.935 
45 50 30 45 44.93 39.691 34.593 38.681 60 
36.007 44.407 34.098 28.164 38.395 51.151 25 38.536 49.159 
32.159 38.265 52.765 28.257 37.551 56.188 39.385 46.914 30 
35.246 42.03 38.454 41.018 45.437 33.328 31.449 42.63 35.225 
45 42.197 44.464 25 44.444 30 29.067 39.672 40.914 
25 41.337 34.879 37.535 37.515 55.859 42.049 38.717 54.018 
38.191 37.946 50.9 34.613 44.181 30 39.636 39.023 46.136 
29.821 35.947 60 45 38.889 60 29.691 37.375 45.451 
39.487 39.941 41.485 25 35.769 53.912 45 39.464 49.237 
25 38.57 39.632 39.51 41.298 35.906 31.97 35.032 56.541 
33.797 37.614 42.269 39.347 35.914 60 29.84 41.447 30 
25 35.803 44.386 45 42.163 34.938 32.734 38.169 37.851 
45 44.444 30 32.91 35.105 48.369 45 36.731 54.01 
25 33.333 60 34.234 39.21 33.952 35.254 34.312 52.737 
45 39.43 39.711 30.294 33.619 52.388 37.287 37.448 38.239 
39.366 41.414 30 27.37 36.569 37.351 36.695 35.276 44.932 
34.574 33.181 60 29.367 37.823 33.8 25 33.036 49.139 
41.869 38.117 37.497 40.229 34.083 53.375 25 38.889 30 
29.961 34.743 41.245 45 36.697 44.483 40.191 35.881 42.023 
28.538 31.859 56.75 37.155 32.66 57.081 25 35.837 34.859 
34.593 38.681 30 41.894 32.984 56.574 40.901 33.953 46.081 
37.752 32.596 48.734 45 33.333 60 29.801 30.448 60 
28.934 31.364 48.113 45 33.964 49.256 39.408 36.77 33.739 
25 33.07 39.613 25 30.269 53.892 33.082 30.468 55.128 
34.584 33.491 39.74 30.625 35.403 32.778 33.44 30.43 50.12 
[...]
CELL_DATA 3457
SCALARS Material int 1
LOOKUP_TABLE default
1 1 1 1 1 1 1 1 1 
1 1 1 1 1 1 1 1 1 
1 1 1 1 1 1 1 1 1 
1 1 1 1 1 1 1 1 1 
1 1 1 1 1 1 1 1 1 
1 1 1 1 1 1 1 1 1 
1 1 1 1 1 1 1 1 1 
1 1 1 1 1 1 1 1 1 
1 1 1 1 1 1 1 1 1 
1 1 1 1 1 1 1 1 1 
1 1 1 1 1 1 1 1 1 
1 1 1 1 1 1 1 1 1 
1 1 1 1 1 1 1 1 1 
1 1 1 1 1 1 1 1 1 
1 1 1 1 1 1 1 1 1 
1 1 1 1 1 1 1 1 1 
1 1 1 1 1 1 1 1 1 
1 1 1 1 1 1 1 1 1 
1 1 1 1 1 1 1 1 1 
1 1 1 1 1 1 1 1 1 
1 1 1 1 1 1 1 1 1 
1 1 1 1 1 1 1 1 1 
1 1 1 1 1 1 1 1 1 
1 1 1 1 1 1 1 1 1 
1 1 1 1 1 1 1 1 1 
1 1 1 1 1 1 1 1 1 
1 1 1 1 1 1 1 1 1 
1 1 1 1 1 1 1 1 1 
1 1 1 1 1 1 1 1 1 
1 1 1 1 1 1 1 1 1 
1 1 1 1 1 1 1 1 1 
1 1 1 1 1 1 1 1 1 
1 1 1 1 1 1 1 1 1 
1 1 1 1 1 1 1 1 1 
1 1 1 1 1 1 1 1 1 
1 1 1 1 1 1 1 1 1 
1 1 1 1 1 1 1 1 1 
1 1 1 1 1 1 1 1 1 
1 1 1 1 1 1 1 1 1 
1 1 1 1 1 1 1 1 1 
1 1 1 1 1 1 1 1 1 
1 1 1 1 1 1 1 1 1 
1 1 1 1 1 1 1 1 1 
1 1 1 1 1 1 1 1 1 
1 1 1 1 1 1 1 1 1 
1 1 1 1 1 1 1 1 1 
1 1 1 1 1 1 1 1 1 
1 1 1 1 1 1 1 1 1 
1 1 1 1 1 1 1 1 1 
1 1 1 1 1 1 1 1 1 
1 1 1 1 1 1 1 1 1 
1 1 1 1 1 1 1 1 1 
1 1 1 1 1 1 1 1 1 
1 1 1 1 1 1 1 1 1 
1 1 1 1 1 1 1 1 1 
1 1 1 1 1 1 1 1 1 
1 1 1 1 1 1 1 1 1 
1 1 1 1 1 1 1 1 1 
1 1 1 1 1 1 1 1 1 
1 1 1 1 1 1 1 1 1 
1 1 1 1 1 1 1 1 1 
1 1 1 1 1 1 1 1 1 
1 1 1 1 1 1 1 1 1 
1 1 1 1 1 1 1 1 1 
1 1 1 1 1 1 1 1 1 
1 1 1 1 1 1 1 1 1 
1 1 1 1 1 1 1 1 1 
1 1 1 1 1 1 1 1 1 
1 1 1 1 1 1 1 1 1 
1 1 1 1 1 1 1 1 1 
1 1 1 1 1 1 1 1 1 
1 1 1 1 1 1 1 1 1 
1 1 1 1 1 1 1 1 1 
1 1 1 1 1 1 1 1 1 
1 1 1 1 1 1 1 1 1 
1 1 1 1 1 1 1 1 1 
1 1 1 1 1 1 1 1 1 
1 1 1 1 1 1 1 1 1 
1 1 1 1 1 1 1 1 1 
1 1 1 1 1 1 1 1 1 
1 1 1 1 1 1 1 1 1 
1 1 1 1 1 1 1 1 1 
1 1 1 1 1 1 1 1 1 
1 1 1 1 1 1 1 1 1 
1 1 1 1 1 1 1 1 1 
1 1 1 1 1 1 1 1 1 
1 1 1 1 1 1 1 1 1 
1 1 1 1 1 1 1 1 1 
1 1 1 1 1 1 1 1 1 
1 1 1 1 1 1 1 1 1 
1 1 1 1 1 1 1 1 1 
1 1 1 1 1 1 1 1 1 
1 1 1 1 1 1 1 1 1 
1 1 1 1 1 1 1 1 1 
1 1 1 1 1 1 1 1 1 
1 1 1 1 1 1 1 1 1 
1 1 1 1 1 1 1 1 1 
1 1 1 1 1 1 1 1 1 
1 1 1 1 1 1 1 1 1 
1 1 1 1 1 1 1 1 1 
1 1 1 1 1 1 1 1 1 
1 1 1 1 1 1 1 1 1 
1 1 1 1 1 1 1 1 1 
1 1 1 1 1 1 1 1 1 
1 1 1 1 1 1 1 1 1 
1 1 1 1 1 1 1 1 1 
1 1 1 1 1 1 1 1 1 
1 1 1 1 1 1 1 1 1 
1 1 1 1 1 1 1 1 1 
1 1 1 1 1 1 1 1 1 
1 1 1 1 1 1 1 1 1 
1 1 1 1 1 1 1 1 1 
1 1 1 1 1 1 1 1 1 
1 1 1 1 1 1 1 1 1 
1 1 1 1 1 1 1 1 1 
1 1 1 1 1 1 1 1 1 
1 1 1 1 1 1 1 1 1 
1 1 1 1 1 1 1 1 1 
1 1 1 1 1 1 1 1 1 
1 1 1 1 1 1 1 1 1 
1 1 1 1 1 1 1 1 1 
1 1 1 1 1 1 1 1 1 
1 1 1 1 1 1 1 1 1 
1 1 1 1 1 1 1 1 1 
1 1 1 1 1 1 1 1 1 
1 1 1 1 1 1 1 1 1 
1 1 1 1 1 1 1 1 1 
1 1 1 1 1 1 1 1 1 
1 1 1 1 1 1 1 1 1 
1 1 1 1 1 1 1 1 1 
1 1 1 1 1 1 1 1 1 
1 1 1 1 1 1 1 1 1 
1 1 1 1 1 1 1 1 1 
1 1 1 1 1 1 1 1 1 
1 1 1 1 1 1 1 1 1 
1 1 1 1 1 1 1 1 1 
1 1 1 1 1 1 1 1 1 
1 1 1 1 1 1 1 1 1 
1 1 1 1 1 1 1 1 1 
1 1 1 1 1 1 1 1 1 
1 1 1 1 1 1 1 1 1 
1 1 1 1 1 1 1 1 1 
1 1 1 1 1 1 1 1 1 
1 1 1 1 1 1 1 1 1 
1 1 1 1 1 1 1 1 1 
1 1 1 1 1 1 1 1 1 
1 1 1 1 1 1 1 1 1 
1 1 1 1 1 1 1 1 1 
1 1 1 1 1 1 1 1 1 
1 1 1 1 1 1 1 1 1 
1 1 1 1 1 1 1 1 1 
1 1 1 1 1 1 1 1 1 
1 1 1 1 1 1 1 1 1 
1 1 1 1 1 1 1 1 1 
1 1 1 1 1 1 1 1 1 
1 1 1 1 1 1 1 1 1 
1 1 1 1 1 1 1 1 1 
1 1 1 1 1 1 1 1 1 
1 1 1 1 1 1 1 1 1 
1 1 1 1 1 1 1 1 1 
1 1 1 1 1 1 1 1 1 
1 1 1 1 1 1 1 1 1 
1 1 1 1 1 1 1 1 1 
1 1 1 1 1 1 1 1 1 
1 1 1 1 1 1 1 1 1 
1 1 1 1 1 1 1 1 1 
1 1 1 1 1 1 1 1 1 
1 1 1 1 1 1 1 1 1 
1 1 1 1 1 1 1 1 1 
1 1 1 1 1 1 1 1 1 
1 1 1 1 1 1 1 1 1 
1 1 1 1 1 1 1 1 1 
1 1 1 1 1 1 1 1 1 
1 1 1 1 1 1 1 1 1 
1 1 1 1 1 1 1 1 1 
1 1 1 1 1 1 1 1 1 
1 1 1 1 1 1 1 1 1 
1 1 1 1 1 1 1 1 1 
1 1 1 1 1 1 1 1 1 
1 1 1 1 1 1 1 1 1 
1 1 1 1 1 1 1 1 1 
1 1 1 1 1 1 1 1 1 
1 1 1 1 1 1 1 1 1 
1 1 1 1 1 1 1 1 1 
1 1 1 1 1 1 1 1 1 
1 1 1 1 1 1 1 1 1 
1 1 1 1 1 1 1 1 1 
1 1 1 1 1 1 1 1 1 
1 1 1 1 1 1 1 1 1 
1 1 1 1 1 1 1 1 1 
1 1 1 1 1 1 1 1 1 
1 1 1 1 1 1 1 1 1 
1 1 1 1 1 1 1 1 1 
1 1 1 1 1 1 1 1 1 
1 1 1 1 1 1 1 1 1 
1 1 1 1 1 1 1 1 1 
1 1 1 1 1 1 1 1 1 
1 1 1 1 1 1 1 1 1 
1 1 1 1 1 1 1 1 1 
1 1 1 1 1 1 1 1 1 
1 1 1 1 1 1 1 1 1 
1 1 1 1 1 1 1 1 1 
1 1 1 1 1 1 1 1 1 
1 1 1 1 1 1 1 1 1 
1 1 1 1 1 1 1 1 1 
1 1 1 1 1 1 1 1 1 
1 1 1 1 1 1 1 1 1 
1 1 1 1 1 1 1 1 1 
1 1 1 1 1 1 1 1 1 
1 1 1 1 1 1 1 1 1 
1 1 1 1 1 1 1 1 1 
1 1 1 1 1 1 1 1 1 
1 1 1 1 1 1 1 1 1 
1 1 1 1 1 1 1 1 1 
1 1 1 1 1 1 1 1 1 
1 1 1 1 1 1 1 1 1 
1 1 1 1 1 1 1 1 1 
1 1 1 1 1 1 1 1 1 
1 1 1 1 1 1 1 1 1 
1 1 1 1 1 1 1 1 1 
1 1 1 1 1 1 1 1 1 
1 1 1 1 1 1 1 1 1 
1 1 1 1 1 1 1 1 1 
1 1 1 1 1 1 1 1 1 
1 1 1 1 1 1 1 1 1 
1 1 1 1 1 1 1 1 1 
1 1 1 1 1 1 1 1 1 
1 1 1 1 1 1 1 1 1 
1 1 1 1 1 1 1 1 1 
1 1 1 1 1 1 1 1 1 
1 1 1 1 1 1 1 1 1 
1 1 1 1 1 1 1 1 1 
1 1 1 1 1 1 1 1 1 
1 1 1 1 1 1 1 1 1 
1 1 1 1 1 1 1 1 1 
1 1 1 1 1 1 1 1 1 
1 1 1 1 1 1 1 1 1 
1 1 1 1 1 1 1 1 1 
1 1 1 1 1 1 1 1 1 
1 1 1 1 1 1 1 1 1 
1 1 1 1 1 1 1 1 1 
1 1 1 1 1 1 1 1 1 
1 1 1 1 1 1 1 1 1 
1 1 1 1 1 1 1 1 1 
1 1 1 1 1 1 1 1 1 
1 1 1 1 1 1 1 1 1 
1 1 1 1 1 1 1 1 1 
1 1 1 1 1 1 1 1 1 
1 1 1 1 1 1 1 1 1 
1 1 1 1 1 1 1 1 1 
1 1 1 1 1 1 1 1 1 
1 1 1 1 1 1 1 1 1 
1 1 1 1 1 1 1 1 1 
1 1 1 1 1 1 1 1 1 
1 1 1 1 1 1 1 1 1 
1 1 1 1 1 1 1 1 1 
1 1 1 1 1 1 1 1 1 
1 1 1 1 1 1 1 1 1 
1 1 1 1 1 1 1 1 1 
1 1 1 1 1 1 1 1 1 
1 1 1 1 1 1 1 1 1 
1 1 1 1 1 1 1 1 1 
1 1 1 1 1 1 1 1 1 
1 1 1 1 1 1 1 1 1 
1 1 1 1 1 1 1 1 1 
1 1 1 1 1 1 1 1 1 
1 1 1 1 1 1 1 1 1 
1 1 1 1 1 1 1 1 1 
1 1 1 1 1 1 1 1 1 
1 1 1 1 1 1 1 1 1 
1 1 1 1 1 1 1 1 1 
1 1 1 1 1 1 1 1 1 
1 1 1 1 1 1 1 1 1 
1 1 1 1 1 1 1 1 1 
1 1 1 1 1 1 1 1 1 
1 1 1 1 1 1 1 1 1 
1 1 1 1 1 1 1 1 1 
1 1 1 1 1 1 1 1 1 
1 1 1 1 1 1 1 1 1 
1 1 1 1 1 1 1 1 1 
1 1 1 1 1 1 1 1 1 
1 1 1 1 1 1 1 1 1 
1 1 1 1 1 1 1 1 1 
1 1 1 1 1 1 1 1 1 
1 1 1 1 1 1 1 1 1 
1 1 1 1 1 1 1 1 1 
1 1 1 1 1 1 1 1 1 
1 1 1 1 1 1 1 1 1 
1 1 1 1 1 1 1 1 1 
1 1 1 1 1 1 1 1 1 
1 1 1 1 1 1 1 1 1 
1 1 1 1 1 1 1 1 1 
1 1 1 1 1 1 1 1 1 
1 1 1 1 1 1 1 1 1 
1 1 1 1 1 1 1 1 1 
1 1 1 1 1 1 1 1 1 
1 1 1 1 1 1 1 1 1 
1 1 1 1 1 1 1 1 1 
1 1 1 1 1 1 1 1 1 
1 1 1 1 1 1 1 1 1 
1 1 1 1 1 1 1 1 1 
1 1 1 1 1 1 1 1 1 
1 1 1 1 1 1 1 1 1 
1 1 1 1 1 1 1 1 1 
1 1 1 1 1 1 1 1 1 
1 1 1 1 1 1 1 1 1 
1 1 1 1 1 1 1 1 1 
1 1 1 1 1 1 1 1 1 
1 1 1 1 1 1 1 1 1 
1 1 1 1 1 1 1 1 1 
1 1 1 1 1 1 1 1 1 
1 1 1 1 1 1 1 1 1 
1 1 1 1 1 1 1 1 1 
1 1 1 1 1 1 1 1 1 
1 1 1 1 1 1 1 1 1 
1 1 1 1 1 1 1 1 1 
1 1 1 1 1 1 1 1 1 
1 1 1 1 1 1 1 1 1 
1 1 1 1 1 1 1 1 1 
1 1 1 1 1 1 1 1 1 
1 1 1 1 1 1 1 1 1 
1 1 1 1 1 1 1 1 1 
1 1 1 1 1 1 1 1 1 
1 1 1 1 1 1 1 1 1 
1 1 1 1 1 1 1 1 1 
1 1 1 1 1 1 1 1 1 
1 1 1 1 1 1 1 1 1 
1 1 1 1 1 1 1 1 1 
1 1 1 1 1 1 1 1 1 
1 1 1 1 1 1 1 1 1 
1 1 1 1 1 1 1 1 1 
1 1 1 1 1 1 1 1 1 
1 1 1 1 1 1 1 1 1 
1 1 1 1 1 1 1 1 1 
1 1 1 1 1 1 1 1 1 
1 1 1 1 1 1 1 1 1 
1 1 1 1 1 1 1 1 1 
1 1 1 1 1 1 1 1 1 
1 1 1 1 1 1 1 1 1 
1 1 1 1 1 1 1 1 1 
1 1 1 1 1 1 1 1 1 
1 1 1 1 1 1 1 1 1 
1 1 1 1 1 1 1 1 1 
1 1 1 1 1 1 1 1 1 
1 1 1 1 1 1 1 1 1 
1 1 1 1 1 1 1 1 1 
1 1 1 1 1 1 1 1 1 
1 1 1 1 1 1 1 1 1 
1 1 1 1 1 1 1 1 1 
1 1 1 1 1 1 1 1 1 
1 1 1 1 1 1 1 1 1 
1 1 1 1 1 1 1 1 1 
1 1 1 1 1 1 1 1 1 
1 1 1 1 1 1 1 1 1 
1 1 1 1 1 1 1 1 1 
1 1 1 1 1 1 1 1 1 
1 1 1 1 1 1 1 1 1 
1 1 1 1 1 1 1 1 1 
1 1 1 1 1 1 1 1 1 
1 1 1 1 1 1 1 1 1 
1 1 1 1 1 1 1 1 1 
1 1 1 1 1 1 1 1 1 
1 1 1 1 1 1 1 1 1 
1 1 1 1 1 1 1 1 1 
1 1 1 1 1 1 1 1 1 
1 1 1 1 1 1 1 1 1 
1 1 1 1 1 1 1 1 1 
1 1 1 1 1 1 1 1 1 
1 1 1 1 1 1 1 1 1 
1 1 1 1 1 1 1 1 1 
1 1 1 1 1 1 1 1 1 
1 1 1 1 1 1 1 1 1 
1 1 1 1 1 1 1 1 1 
1 1 1 1 1 1 1 1 1 
1 1 1 1 1 1 1 1 1 
1 1 1 1 1 1 1 1 1 
1 1 1 1 1 1 1 1 1 
1 1 1 1 1 1 1 1 1 
1 1 1 1 1 1 1 1 1 
1 1 1 1 1 1 1 1 1 
1 1 1 1 1 1 1 1 1 
1 1 1 1 1 1 1 1 1 
1 1 1 1 1 1 1 1 1 
1 1 1 1 1 1 1 1 1 
1 
METADATA
INFORMATION 0

